Green Red Orange Magenta Azure Cyan Skyblue
   87
    1GLY      N    1  -0.206  -0.348  -0.223
    1GLY      H    2  -0.145  -0.320  -0.298
    1GLY     CA    3  -0.350  -0.341  -0.243
    1GLY    HA1    4  -0.391  -0.421  -0.199
    1GLY    HA2    5  -0.368  -0.344  -0.341
    1GLY      C    6  -0.406  -0.212  -0.182
    1GLY      O    7  -0.457  -0.123  -0.250
    2VAL      N    8  -0.391  -0.204  -0.045
    2VAL      H    9  -0.376  -0.286   0.010
    2VAL     CA   10  -0.398  -0.073   0.021
    2VAL     HA   11  -0.482  -0.031  -0.013
    2VAL     CB   12  -0.413  -0.085   0.174
    2VAL     HB   13  -0.407   0.008   0.210
    2VAL    CG1   14  -0.299  -0.164   0.241
    2VAL   HG11   15  -0.315  -0.168   0.339
    2VAL   HG12   16  -0.297  -0.257   0.204
    2VAL   HG13   17  -0.212  -0.119   0.222
    2VAL    CG2   18  -0.548  -0.146   0.212
    2VAL   HG21   19  -0.555  -0.153   0.312
    2VAL   HG22   20  -0.622  -0.088   0.177
    2VAL   HG23   21  -0.555  -0.238   0.172
    2VAL      C   22  -0.272   0.008  -0.020
    2VAL      O   23  -0.170  -0.049  -0.062
    3PRO      N   24  -0.272   0.145  -0.002
    3PRO     CD   25  -0.384   0.226   0.044
    3PRO    HD1   26  -0.377   0.242   0.142
    3PRO    HD2   27  -0.470   0.180   0.024
    3PRO     CG   28  -0.373   0.357  -0.034
    3PRO    HG1   29  -0.410   0.433   0.018
    3PRO    HG2   30  -0.419   0.350  -0.122
    3PRO     CB   31  -0.223   0.372  -0.052
    3PRO    HB1   32  -0.180   0.409   0.030
    3PRO    HB2   33  -0.202   0.431  -0.130
    3PRO     CA   34  -0.176   0.228  -0.078
    3PRO     HA   35  -0.181   0.194  -0.171
    3PRO      C   36  -0.027   0.217  -0.043
    3PRO      O   37   0.059   0.270  -0.113
    4VAL      N   38   0.004   0.147   0.072
    4VAL      H   39  -0.070   0.119   0.133
    4VAL     CA   40   0.142   0.113   0.105
    4VAL     HA   41   0.196   0.192   0.075
    4VAL     CB   42   0.164   0.098   0.257
    4VAL     HB   43   0.255   0.060   0.269
    4VAL    CG1   44   0.066   0.001   0.324
    4VAL   HG11   45   0.085  -0.003   0.422
    4VAL   HG12   46  -0.028   0.034   0.310
    4VAL   HG13   47   0.076  -0.089   0.283
    4VAL    CG2   48   0.156   0.235   0.326
    4VAL   HG21   49   0.170   0.223   0.425
    4VAL   HG22   50   0.227   0.295   0.289
    4VAL   HG23   51   0.066   0.276   0.310
    4VAL      C   52   0.187  -0.014   0.026
    4VAL      O   53   0.243  -0.110   0.078
    5TRP      N   54   0.165  -0.005  -0.110
    5TRP      H   55   0.102   0.064  -0.145
    5TRP     CA   56   0.230  -0.097  -0.205
    5TRP     HA   57   0.199  -0.059  -0.292
    5TRP     CB   58   0.384  -0.091  -0.202
    5TRP    HB1   59   0.420  -0.143  -0.279
    5TRP    HB2   60   0.417  -0.130  -0.117
    5TRP     CG   61   0.437   0.049  -0.212
    5TRP    CD1   62   0.438   0.129  -0.325
    5TRP    HD1   63   0.406   0.102  -0.416
    5TRP    NE1   64   0.490   0.251  -0.292
    5TRP    HE1   65   0.502   0.327  -0.355
    5TRP    CE2   66   0.525   0.253  -0.158
    5TRP    CZ2   67   0.580   0.356  -0.081
    5TRP    HZ2   68   0.601   0.445  -0.121
    5TRP    CH2   69   0.605   0.329   0.054
    5TRP    HH2   70   0.644   0.401   0.112
    5TRP    CZ3   71   0.576   0.205   0.109
    5TRP    HZ3   72   0.595   0.188   0.206
    5TRP    CE3   73   0.521   0.103   0.030
    5TRP    HE3   74   0.500   0.014   0.070
    5TRP    CD2   75   0.494   0.127  -0.106
    5TRP      C   76   0.181  -0.243  -0.191
    5TRP      O   77   0.248  -0.339  -0.227
    6ALA      N   78   0.049  -0.256  -0.149
    6ALA      H   79  -0.013  -0.177  -0.154
    6ALA     CA   80   0.003  -0.385  -0.100
    6ALA     HA   81   0.042  -0.454  -0.161
    6ALA     CB   82   0.054  -0.410   0.042
    6ALA    HB1   83   0.021  -0.499   0.074
    6ALA    HB2   84   0.154  -0.410   0.042
    6ALA    HB3   85   0.021  -0.339   0.103
    6ALA      C   86  -0.151  -0.391  -0.104
    6ALA      O   87  -0.221  -0.435  -0.013
   1.26560   0.94425   0.84076
