;
;	File 'topol.top' was generated
;	By user: boittier (342316)
;	On host: cosmopc27
;	At date: Tue Sep 29 08:16:24 2026
;
;	This is a standalone topology file
;
;	Created by:
;	    :-) GROMACS - gmx pdb2gmx, 2027.0-dev-20260923-30076f2e17-unknown (-:
;	
;	Executable:   /home/boittier/metawork/gromacs-oniom-cyclic/../gromacs-oniom-capi/build/bin/gmx
;	Data prefix:  /home/boittier/metawork/gromacs-oniom-capi (source tree)
;	Working dir:  /home/boittier/metawork/gromacs-oniom-cyclic
;	Command line:
;	  gmx pdb2gmx -f segetalinA_heavy.pdb -ff amber99sb-ildn -water tip3p -ignh -ter -o pep.gro -p topol.top -i posre.itp
;	Force field was read from the standard GROMACS share directory.
;

; Include forcefield parameters
#include "amber99sb-ildn.ff/forcefield.itp"

[ moleculetype ]
; Name            nrexcl
Protein_chain_A     3

[ atoms ]
;   nr       type  resnr residue  atom   cgnr     charge       mass  typeB    chargeB      massB
; residue   1 GLY rtp GLY  q  0.0
     1          N      1    GLY      N      1    -0.4157      14.01
     2          H      1    GLY      H      2     0.2719      1.008
     3         CT      1    GLY     CA      3    -0.0252      12.01
     4         H1      1    GLY    HA1      4     0.0698      1.008
     5         H1      1    GLY    HA2      5     0.0698      1.008
     6          C      1    GLY      C      6     0.5973      12.01
     7          O      1    GLY      O      7    -0.5679         16   ; qtot 0
; residue   2 VAL rtp VAL  q  0.0
     8          N      2    VAL      N      8    -0.4157      14.01
     9          H      2    VAL      H      9     0.2719      1.008
    10         CT      2    VAL     CA     10    -0.0875      12.01
    11         H1      2    VAL     HA     11     0.0969      1.008
    12         CT      2    VAL     CB     12     0.2985      12.01
    13         HC      2    VAL     HB     13    -0.0297      1.008
    14         CT      2    VAL    CG1     14    -0.3192      12.01
    15         HC      2    VAL   HG11     15     0.0791      1.008
    16         HC      2    VAL   HG12     16     0.0791      1.008
    17         HC      2    VAL   HG13     17     0.0791      1.008
    18         CT      2    VAL    CG2     18    -0.3192      12.01
    19         HC      2    VAL   HG21     19     0.0791      1.008
    20         HC      2    VAL   HG22     20     0.0791      1.008
    21         HC      2    VAL   HG23     21     0.0791      1.008
    22          C      2    VAL      C     22     0.5973      12.01
    23          O      2    VAL      O     23    -0.5679         16   ; qtot 0
; residue   3 PRO rtp PRO  q  0.0
    24          N      3    PRO      N     24    -0.2548      14.01
    25         CT      3    PRO     CD     25     0.0192      12.01
    26         H1      3    PRO    HD1     26     0.0391      1.008
    27         H1      3    PRO    HD2     27     0.0391      1.008
    28         CT      3    PRO     CG     28     0.0189      12.01
    29         HC      3    PRO    HG1     29     0.0213      1.008
    30         HC      3    PRO    HG2     30     0.0213      1.008
    31         CT      3    PRO     CB     31     -0.007      12.01
    32         HC      3    PRO    HB1     32     0.0253      1.008
    33         HC      3    PRO    HB2     33     0.0253      1.008
    34         CT      3    PRO     CA     34    -0.0266      12.01
    35         H1      3    PRO     HA     35     0.0641      1.008
    36          C      3    PRO      C     36     0.5896      12.01
    37          O      3    PRO      O     37    -0.5748         16   ; qtot 0
; residue   4 VAL rtp VAL  q  0.0
    38          N      4    VAL      N     38    -0.4157      14.01
    39          H      4    VAL      H     39     0.2719      1.008
    40         CT      4    VAL     CA     40    -0.0875      12.01
    41         H1      4    VAL     HA     41     0.0969      1.008
    42         CT      4    VAL     CB     42     0.2985      12.01
    43         HC      4    VAL     HB     43    -0.0297      1.008
    44         CT      4    VAL    CG1     44    -0.3192      12.01
    45         HC      4    VAL   HG11     45     0.0791      1.008
    46         HC      4    VAL   HG12     46     0.0791      1.008
    47         HC      4    VAL   HG13     47     0.0791      1.008
    48         CT      4    VAL    CG2     48    -0.3192      12.01
    49         HC      4    VAL   HG21     49     0.0791      1.008
    50         HC      4    VAL   HG22     50     0.0791      1.008
    51         HC      4    VAL   HG23     51     0.0791      1.008
    52          C      4    VAL      C     52     0.5973      12.01
    53          O      4    VAL      O     53    -0.5679         16   ; qtot 0
; residue   5 TRP rtp TRP  q  0.0
    54          N      5    TRP      N     54    -0.4157      14.01
    55          H      5    TRP      H     55     0.2719      1.008
    56         CT      5    TRP     CA     56    -0.0275      12.01
    57         H1      5    TRP     HA     57     0.1123      1.008
    58         CT      5    TRP     CB     58     -0.005      12.01
    59         HC      5    TRP    HB1     59     0.0339      1.008
    60         HC      5    TRP    HB2     60     0.0339      1.008
    61         C*      5    TRP     CG     61    -0.1415      12.01
    62         CW      5    TRP    CD1     62    -0.1638      12.01
    63         H4      5    TRP    HD1     63     0.2062      1.008
    64         NA      5    TRP    NE1     64    -0.3418      14.01
    65          H      5    TRP    HE1     65     0.3412      1.008
    66         CN      5    TRP    CE2     66      0.138      12.01
    67         CA      5    TRP    CZ2     67    -0.2601      12.01
    68         HA      5    TRP    HZ2     68     0.1572      1.008
    69         CA      5    TRP    CH2     69    -0.1134      12.01
    70         HA      5    TRP    HH2     70     0.1417      1.008
    71         CA      5    TRP    CZ3     71    -0.1972      12.01
    72         HA      5    TRP    HZ3     72     0.1447      1.008
    73         CA      5    TRP    CE3     73    -0.2387      12.01
    74         HA      5    TRP    HE3     74       0.17      1.008
    75         CB      5    TRP    CD2     75     0.1243      12.01
    76          C      5    TRP      C     76     0.5973      12.01
    77          O      5    TRP      O     77    -0.5679         16   ; qtot 0
; residue   6 ALA rtp ALA  q  0.0
    78          N      6    ALA      N     78    -0.4157      14.01
    79          H      6    ALA      H     79     0.2719      1.008
    80         CT      6    ALA     CA     80     0.0337      12.01
    81         H1      6    ALA     HA     81     0.0823      1.008
    82         CT      6    ALA     CB     82    -0.1825      12.01
    83         HC      6    ALA    HB1     83     0.0603      1.008
    84         HC      6    ALA    HB2     84     0.0603      1.008
    85         HC      6    ALA    HB3     85     0.0603      1.008
    86          C      6    ALA      C     86     0.5973      12.01
    87          O      6    ALA      O     87    -0.5679         16   ; qtot 0

[ bonds ]
;  ai    aj funct            c0            c1            c2            c3
    1     2     1 
    1     3     1 
    1    86     1 
    3     4     1 
    3     5     1 
    3     6     1 
    6     7     1 
    6     8     1 
    8     9     1 
    8    10     1 
   10    11     1 
   10    12     1 
   10    22     1 
   12    13     1 
   12    14     1 
   12    18     1 
   14    15     1 
   14    16     1 
   14    17     1 
   18    19     1 
   18    20     1 
   18    21     1 
   22    23     1 
   22    24     1 
   24    25     1 
   24    34     1 
   25    26     1 
   25    27     1 
   25    28     1 
   28    29     1 
   28    30     1 
   28    31     1 
   31    32     1 
   31    33     1 
   31    34     1 
   34    35     1 
   34    36     1 
   36    37     1 
   36    38     1 
   38    39     1 
   38    40     1 
   40    41     1 
   40    42     1 
   40    52     1 
   42    43     1 
   42    44     1 
   42    48     1 
   44    45     1 
   44    46     1 
   44    47     1 
   48    49     1 
   48    50     1 
   48    51     1 
   52    53     1 
   52    54     1 
   54    55     1 
   54    56     1 
   56    57     1 
   56    58     1 
   56    76     1 
   58    59     1 
   58    60     1 
   58    61     1 
   61    62     1 
   61    75     1 
   62    63     1 
   62    64     1 
   64    65     1 
   64    66     1 
   66    67     1 
   66    75     1 
   67    68     1 
   67    69     1 
   69    70     1 
   69    71     1 
   71    72     1 
   71    73     1 
   73    74     1 
   73    75     1 
   76    77     1 
   76    78     1 
   78    79     1 
   78    80     1 
   80    81     1 
   80    82     1 
   80    86     1 
   82    83     1 
   82    84     1 
   82    85     1 
   86    87     1 

[ pairs ]
;  ai    aj funct            c0            c1            c2            c3
    1     7     1 
    1     8     1 
    1    78     1 
    1    81     1 
    1    82     1 
    2     4     1 
    2     5     1 
    2     6     1 
    2    80     1 
    2    87     1 
    3     9     1 
    3    10     1 
    3    80     1 
    3    87     1 
    4     7     1 
    4     8     1 
    4    86     1 
    5     7     1 
    5     8     1 
    5    86     1 
    6    11     1 
    6    12     1 
    6    22     1 
    6    86     1 
    7     9     1 
    7    10     1 
    8    13     1 
    8    14     1 
    8    18     1 
    8    23     1 
    8    24     1 
    9    11     1 
    9    12     1 
    9    22     1 
   10    15     1 
   10    16     1 
   10    17     1 
   10    19     1 
   10    20     1 
   10    21     1 
   10    25     1 
   10    34     1 
   11    13     1 
   11    14     1 
   11    18     1 
   11    23     1 
   11    24     1 
   12    23     1 
   12    24     1 
   13    15     1 
   13    16     1 
   13    17     1 
   13    19     1 
   13    20     1 
   13    21     1 
   13    22     1 
   14    19     1 
   14    20     1 
   14    21     1 
   14    22     1 
   15    18     1 
   16    18     1 
   17    18     1 
   18    22     1 
   22    26     1 
   22    27     1 
   22    28     1 
   22    31     1 
   22    35     1 
   22    36     1 
   23    25     1 
   23    34     1 
   24    29     1 
   24    30     1 
   24    32     1 
   24    33     1 
   24    37     1 
   24    38     1 
   25    32     1 
   25    33     1 
   25    35     1 
   25    36     1 
   26    29     1 
   26    30     1 
   26    31     1 
   26    34     1 
   27    29     1 
   27    30     1 
   27    31     1 
   27    34     1 
   28    35     1 
   28    36     1 
   29    32     1 
   29    33     1 
   29    34     1 
   30    32     1 
   30    33     1 
   30    34     1 
   31    37     1 
   31    38     1 
   32    35     1 
   32    36     1 
   33    35     1 
   33    36     1 
   34    39     1 
   34    40     1 
   35    37     1 
   35    38     1 
   36    41     1 
   36    42     1 
   36    52     1 
   37    39     1 
   37    40     1 
   38    43     1 
   38    44     1 
   38    48     1 
   38    53     1 
   38    54     1 
   39    41     1 
   39    42     1 
   39    52     1 
   40    45     1 
   40    46     1 
   40    47     1 
   40    49     1 
   40    50     1 
   40    51     1 
   40    55     1 
   40    56     1 
   41    43     1 
   41    44     1 
   41    48     1 
   41    53     1 
   41    54     1 
   42    53     1 
   42    54     1 
   43    45     1 
   43    46     1 
   43    47     1 
   43    49     1 
   43    50     1 
   43    51     1 
   43    52     1 
   44    49     1 
   44    50     1 
   44    51     1 
   44    52     1 
   45    48     1 
   46    48     1 
   47    48     1 
   48    52     1 
   52    57     1 
   52    58     1 
   52    76     1 
   53    55     1 
   53    56     1 
   54    59     1 
   54    60     1 
   54    61     1 
   54    77     1 
   54    78     1 
   55    57     1 
   55    58     1 
   55    76     1 
   56    62     1 
   56    75     1 
   56    79     1 
   56    80     1 
   57    59     1 
   57    60     1 
   57    61     1 
   57    77     1 
   57    78     1 
   58    63     1 
   58    64     1 
   58    66     1 
   58    73     1 
   58    77     1 
   58    78     1 
   59    62     1 
   59    75     1 
   59    76     1 
   60    62     1 
   60    75     1 
   60    76     1 
   61    65     1 
   61    67     1 
   61    71     1 
   61    74     1 
   61    76     1 
   62    67     1 
   62    73     1 
   63    65     1 
   63    66     1 
   63    75     1 
   64    68     1 
   64    69     1 
   64    73     1 
   65    67     1 
   65    75     1 
   66    70     1 
   66    71     1 
   66    74     1 
   67    72     1 
   67    73     1 
   68    70     1 
   68    71     1 
   68    75     1 
   69    74     1 
   69    75     1 
   70    72     1 
   70    73     1 
   72    74     1 
   72    75     1 
   76    81     1 
   76    82     1 
   76    86     1 
   77    79     1 
   77    80     1 
   78    83     1 
   78    84     1 
   78    85     1 
   78    87     1 
   79    81     1 
   79    82     1 
   79    86     1 
   81    83     1 
   81    84     1 
   81    85     1 
   81    87     1 
   82    87     1 
   83    86     1 
   84    86     1 
   85    86     1 

[ angles ]
;  ai    aj    ak funct            c0            c1            c2            c3
    2     1     3     1 
    2     1    86     1 
    3     1    86     1 
    1     3     4     1 
    1     3     5     1 
    1     3     6     1 
    4     3     5     1 
    4     3     6     1 
    5     3     6     1 
    3     6     7     1 
    3     6     8     1 
    7     6     8     1 
    6     8     9     1 
    6     8    10     1 
    9     8    10     1 
    8    10    11     1 
    8    10    12     1 
    8    10    22     1 
   11    10    12     1 
   11    10    22     1 
   12    10    22     1 
   10    12    13     1 
   10    12    14     1 
   10    12    18     1 
   13    12    14     1 
   13    12    18     1 
   14    12    18     1 
   12    14    15     1 
   12    14    16     1 
   12    14    17     1 
   15    14    16     1 
   15    14    17     1 
   16    14    17     1 
   12    18    19     1 
   12    18    20     1 
   12    18    21     1 
   19    18    20     1 
   19    18    21     1 
   20    18    21     1 
   10    22    23     1 
   10    22    24     1 
   23    22    24     1 
   22    24    25     1 
   22    24    34     1 
   25    24    34     1 
   24    25    26     1 
   24    25    27     1 
   24    25    28     1 
   26    25    27     1 
   26    25    28     1 
   27    25    28     1 
   25    28    29     1 
   25    28    30     1 
   25    28    31     1 
   29    28    30     1 
   29    28    31     1 
   30    28    31     1 
   28    31    32     1 
   28    31    33     1 
   28    31    34     1 
   32    31    33     1 
   32    31    34     1 
   33    31    34     1 
   24    34    31     1 
   24    34    35     1 
   24    34    36     1 
   31    34    35     1 
   31    34    36     1 
   35    34    36     1 
   34    36    37     1 
   34    36    38     1 
   37    36    38     1 
   36    38    39     1 
   36    38    40     1 
   39    38    40     1 
   38    40    41     1 
   38    40    42     1 
   38    40    52     1 
   41    40    42     1 
   41    40    52     1 
   42    40    52     1 
   40    42    43     1 
   40    42    44     1 
   40    42    48     1 
   43    42    44     1 
   43    42    48     1 
   44    42    48     1 
   42    44    45     1 
   42    44    46     1 
   42    44    47     1 
   45    44    46     1 
   45    44    47     1 
   46    44    47     1 
   42    48    49     1 
   42    48    50     1 
   42    48    51     1 
   49    48    50     1 
   49    48    51     1 
   50    48    51     1 
   40    52    53     1 
   40    52    54     1 
   53    52    54     1 
   52    54    55     1 
   52    54    56     1 
   55    54    56     1 
   54    56    57     1 
   54    56    58     1 
   54    56    76     1 
   57    56    58     1 
   57    56    76     1 
   58    56    76     1 
   56    58    59     1 
   56    58    60     1 
   56    58    61     1 
   59    58    60     1 
   59    58    61     1 
   60    58    61     1 
   58    61    62     1 
   58    61    75     1 
   62    61    75     1 
   61    62    63     1 
   61    62    64     1 
   63    62    64     1 
   62    64    65     1 
   62    64    66     1 
   65    64    66     1 
   64    66    67     1 
   64    66    75     1 
   67    66    75     1 
   66    67    68     1 
   66    67    69     1 
   68    67    69     1 
   67    69    70     1 
   67    69    71     1 
   70    69    71     1 
   69    71    72     1 
   69    71    73     1 
   72    71    73     1 
   71    73    74     1 
   71    73    75     1 
   74    73    75     1 
   61    75    66     1 
   61    75    73     1 
   66    75    73     1 
   56    76    77     1 
   56    76    78     1 
   77    76    78     1 
   76    78    79     1 
   76    78    80     1 
   79    78    80     1 
   78    80    81     1 
   78    80    82     1 
   78    80    86     1 
   81    80    82     1 
   81    80    86     1 
   82    80    86     1 
   80    82    83     1 
   80    82    84     1 
   80    82    85     1 
   83    82    84     1 
   83    82    85     1 
   84    82    85     1 
    1    86    80     1 
    1    86    87     1 
   80    86    87     1 

[ dihedrals ]
;  ai    aj    ak    al funct            c0            c1            c2            c3            c4            c5
    2     1     3     4     9 
    2     1     3     5     9 
    2     1     3     6     9 
   86     1     3     4     9 
   86     1     3     5     9 
   86     1     3     6     9 
    2     1    86    80     9 
    2     1    86    87     9 
    3     1    86    80     9 
    3     1    86    87     9 
    1     3     6     7     9 
    1     3     6     8     9 
    4     3     6     7     9 
    4     3     6     8     9 
    5     3     6     7     9 
    5     3     6     8     9 
    3     6     8     9     9 
    3     6     8    10     9 
    7     6     8     9     9 
    7     6     8    10     9 
    6     8    10    11     9 
    6     8    10    12     9 
    6     8    10    22     9 
    9     8    10    11     9 
    9     8    10    12     9 
    9     8    10    22     9 
    8    10    12    13     9 
    8    10    12    14     9 
    8    10    12    18     9 
   11    10    12    13     9 
   11    10    12    14     9 
   11    10    12    18     9 
   22    10    12    13     9 
   22    10    12    14     9 
   22    10    12    18     9 
    8    10    22    23     9 
    8    10    22    24     9 
   11    10    22    23     9 
   11    10    22    24     9 
   12    10    22    23     9 
   12    10    22    24     9 
   10    12    14    15     9 
   10    12    14    16     9 
   10    12    14    17     9 
   13    12    14    15     9 
   13    12    14    16     9 
   13    12    14    17     9 
   18    12    14    15     9 
   18    12    14    16     9 
   18    12    14    17     9 
   10    12    18    19     9 
   10    12    18    20     9 
   10    12    18    21     9 
   13    12    18    19     9 
   13    12    18    20     9 
   13    12    18    21     9 
   14    12    18    19     9 
   14    12    18    20     9 
   14    12    18    21     9 
   10    22    24    25     9 
   10    22    24    34     9 
   23    22    24    25     9 
   23    22    24    34     9 
   22    24    25    26     9 
   22    24    25    27     9 
   22    24    25    28     9 
   34    24    25    26     9 
   34    24    25    27     9 
   34    24    25    28     9 
   22    24    34    31     9 
   22    24    34    35     9 
   22    24    34    36     9 
   25    24    34    31     9 
   25    24    34    35     9 
   25    24    34    36     9 
   24    25    28    29     9 
   24    25    28    30     9 
   24    25    28    31     9 
   26    25    28    29     9 
   26    25    28    30     9 
   26    25    28    31     9 
   27    25    28    29     9 
   27    25    28    30     9 
   27    25    28    31     9 
   25    28    31    32     9 
   25    28    31    33     9 
   25    28    31    34     9 
   29    28    31    32     9 
   29    28    31    33     9 
   29    28    31    34     9 
   30    28    31    32     9 
   30    28    31    33     9 
   30    28    31    34     9 
   28    31    34    24     9 
   28    31    34    35     9 
   28    31    34    36     9 
   32    31    34    24     9 
   32    31    34    35     9 
   32    31    34    36     9 
   33    31    34    24     9 
   33    31    34    35     9 
   33    31    34    36     9 
   24    34    36    37     9 
   24    34    36    38     9 
   31    34    36    37     9 
   31    34    36    38     9 
   35    34    36    37     9 
   35    34    36    38     9 
   34    36    38    39     9 
   34    36    38    40     9 
   37    36    38    39     9 
   37    36    38    40     9 
   36    38    40    41     9 
   36    38    40    42     9 
   36    38    40    52     9 
   39    38    40    41     9 
   39    38    40    42     9 
   39    38    40    52     9 
   38    40    42    43     9 
   38    40    42    44     9 
   38    40    42    48     9 
   41    40    42    43     9 
   41    40    42    44     9 
   41    40    42    48     9 
   52    40    42    43     9 
   52    40    42    44     9 
   52    40    42    48     9 
   38    40    52    53     9 
   38    40    52    54     9 
   41    40    52    53     9 
   41    40    52    54     9 
   42    40    52    53     9 
   42    40    52    54     9 
   40    42    44    45     9 
   40    42    44    46     9 
   40    42    44    47     9 
   43    42    44    45     9 
   43    42    44    46     9 
   43    42    44    47     9 
   48    42    44    45     9 
   48    42    44    46     9 
   48    42    44    47     9 
   40    42    48    49     9 
   40    42    48    50     9 
   40    42    48    51     9 
   43    42    48    49     9 
   43    42    48    50     9 
   43    42    48    51     9 
   44    42    48    49     9 
   44    42    48    50     9 
   44    42    48    51     9 
   40    52    54    55     9 
   40    52    54    56     9 
   53    52    54    55     9 
   53    52    54    56     9 
   52    54    56    57     9 
   52    54    56    58     9 
   52    54    56    76     9 
   55    54    56    57     9 
   55    54    56    58     9 
   55    54    56    76     9 
   54    56    58    59     9 
   54    56    58    60     9 
   54    56    58    61     9 
   57    56    58    59     9 
   57    56    58    60     9 
   57    56    58    61     9 
   76    56    58    59     9 
   76    56    58    60     9 
   76    56    58    61     9 
   54    56    76    77     9 
   54    56    76    78     9 
   57    56    76    77     9 
   57    56    76    78     9 
   58    56    76    77     9 
   58    56    76    78     9 
   56    58    61    62     9 
   56    58    61    75     9 
   59    58    61    62     9 
   59    58    61    75     9 
   60    58    61    62     9 
   60    58    61    75     9 
   58    61    62    63     9 
   58    61    62    64     9 
   75    61    62    63     9 
   75    61    62    64     9 
   58    61    75    66     9 
   58    61    75    73     9 
   62    61    75    66     9 
   62    61    75    73     9 
   61    62    64    65     9 
   61    62    64    66     9 
   63    62    64    65     9 
   63    62    64    66     9 
   62    64    66    67     9 
   62    64    66    75     9 
   65    64    66    67     9 
   65    64    66    75     9 
   64    66    67    68     9 
   64    66    67    69     9 
   75    66    67    68     9 
   75    66    67    69     9 
   64    66    75    61     9 
   64    66    75    73     9 
   67    66    75    61     9 
   67    66    75    73     9 
   66    67    69    70     9 
   66    67    69    71     9 
   68    67    69    70     9 
   68    67    69    71     9 
   67    69    71    72     9 
   67    69    71    73     9 
   70    69    71    72     9 
   70    69    71    73     9 
   69    71    73    74     9 
   69    71    73    75     9 
   72    71    73    74     9 
   72    71    73    75     9 
   71    73    75    61     9 
   71    73    75    66     9 
   74    73    75    61     9 
   74    73    75    66     9 
   56    76    78    79     9 
   56    76    78    80     9 
   77    76    78    79     9 
   77    76    78    80     9 
   76    78    80    81     9 
   76    78    80    82     9 
   76    78    80    86     9 
   79    78    80    81     9 
   79    78    80    82     9 
   79    78    80    86     9 
   78    80    82    83     9 
   78    80    82    84     9 
   78    80    82    85     9 
   81    80    82    83     9 
   81    80    82    84     9 
   81    80    82    85     9 
   86    80    82    83     9 
   86    80    82    84     9 
   86    80    82    85     9 
   78    80    86     1     9 
   78    80    86    87     9 
   81    80    86     1     9 
   81    80    86    87     9 
   82    80    86     1     9 
   82    80    86    87     9 

[ dihedrals ]
;  ai    aj    ak    al funct            c0            c1            c2            c3
    2     1     3    86     4 
    3     8     6     7     4 
    6    10     8     9     4 
   10    24    22    23     4 
   22    25    24    34     4 
   34    38    36    37     4 
   36    40    38    39     4 
   40    54    52    53     4 
   52    56    54    55     4 
   56    78    76    77     4 
   61    64    62    63     4 
   62    66    64    65     4 
   62    61    58    75     4 
   66    69    67    68     4 
   67    71    69    70     4 
   69    73    71    72     4 
   71    75    73    74     4 
   76    80    78    79     4 
   80     1    86    87     4 

; Include Position restraint file
#ifdef POSRES
#include "posre.itp"
#endif

; Include water topology
#include "amber99sb-ildn.ff/tip3p.itp"

#ifdef POSRES_WATER
; Position restraint for each water oxygen
[ position_restraints ]
;  i funct       fcx        fcy        fcz
   1    1       1000       1000       1000
#endif

; Include topology for ions
#include "amber99sb-ildn.ff/ions.itp"

[ system ]
; Name
Protein in water

[ molecules ]
; Compound        #mols
Protein_chain_A     1
SOL              4025
