; MM NpT, 20 ps, protein heavy atoms restrained
define                  = -DPOSRES
integrator              = md
dt                      = 0.002
nsteps                  = 10000
constraints             = h-bonds
cutoff-scheme           = Verlet
pbc                     = xyz
coulombtype             = PME
rcoulomb                = 1.2
vdwtype                 = Cut-off
vdw-modifier            = Force-switch
rvdw-switch             = 1.0
rvdw                    = 1.2
DispCorr                = no
tcoupl                  = V-rescale
tc-grps                 = System
tau-t                   = 0.1
ref-t                   = 300
pcoupl                  = C-rescale
pcoupltype              = isotropic
tau-p                   = 2.0
ref-p                   = 1.0
compressibility         = 4.5e-5
refcoord-scaling        = com
continuation            = yes
nstenergy               = 500
nstlog                  = 2500
